alpha-al2o3 / aluminum
 
  8466  atoms
     2  atom types
 
	-4.2136e-01	3.8485e+01 	xlo xhi
	-3.6491e-01	3.3328e+01 	ylo yhi
	0.000000000	84.8692 	zlo zhi

Masses

1 16.01
2 26.98

 
Atoms
 
1 2 1.53361 9.29678 2.44171 23.279628555547646
2 2 1.59705 26.3093 31.967 23.372128555547647
3 2 1.71137 16.5504 14.8814 23.47330755554765
4 2 1.64228 11.6076 31.82 23.508702555547647
5 2 1.74015 6.91047 15.0301 23.526485555547648
6 2 1.81419 11.8772 14.9288 23.532415555547647
7 2 1.72419 4.45295 2.25008 23.54404355554765
8 2 1.7518599999999998 4.32612 27.6677 23.54541155554765
9 2 1.63405 36.187 23.7502 23.547490555547647
10 2 1.6767599999999998 1.97865 23.4433 23.553330555547646
11 2 1.7529 28.8201 27.864 23.55451855554765
12 2 1.65943 21.419 6.656389999999999 23.559757555547648
13 2 1.6429900000000002 2.04443 31.9169 23.564279555547646
14 2 1.78962 14.0971 27.6543 23.569868555547647
15 2 1.6269999999999998 28.7606 10.8808 23.572008555547647
16 2 1.68682 11.684 23.3962 23.57224155554765
17 2 1.71118 4.54065 19.0123 23.577858555547646
18 2 1.58578 26.3415 15.1426 23.578370555547647
19 2 1.6885 6.9009 6.4057 23.581025555547647
20 2 1.52015 16.5325 31.7571 23.58196055554765
21 2 1.7778200000000002 9.37493 19.3292 23.587339555547647
22 2 1.70514 23.9504 2.4746 23.59358955554765
23 2 1.76311 4.20757 10.8357 23.594259555547648
24 2 1.67152 19.1157 19.1821 23.596303555547646
25 2 1.6423299999999998 23.8067 19.2759 23.598716555547647
26 2 1.6937799999999998 31.1009 23.5669 23.60064055554765
27 2 1.621 6.87033 31.783 23.604696555547648
28 2 1.7897599999999998 23.8303 27.6244 23.607858555547647
29 2 1.7586700000000002 31.2338 15.0416 23.60988555554765
30 2 1.76706 14.0244 10.7999 23.61870555554765
31 2 1.60148 1.99154 6.6784300000000005 23.621688555547646
32 2 1.65408 21.5754 15.1904 23.632662555547647
33 2 1.6797799999999998 33.6564 2.37793 23.633572555547648
34 2 1.69475 9.27382 10.7779 23.64042355554765
35 2 1.6966599999999998 38.474 19.3666 23.64547255554765
36 2 1.5984 28.7896 2.41478 23.650220555547648
37 2 1.60386 14.094 2.50236 23.65536355554765
38 2 1.63052 11.5125 6.51025 23.66788855554765
39 2 1.65327 9.31118 27.6812 23.670336555547646
40 2 1.7586 16.5983 23.2685 23.67365355554765
41 2 1.66278 21.4379 23.7111 23.675404555547647
42 2 1.5728 19.0328 2.36168 23.678778555547648
43 2 1.63758 38.3729 10.6905 23.679854555547646
44 2 1.67576 16.5296 6.78568 23.680076555547647
45 2 1.71877 26.1666 23.6278 23.68085255554765
46 2 1.68307 -0.413616 27.6927 23.689153555547648
47 2 1.66083 33.8076 27.8675 23.692327555547646
48 2 1.7700599999999995 35.8752 31.8881 23.692473555547647
49 2 1.57466 2.08779 15.1113 23.694014555547646
50 2 1.70147 35.865 6.4979 23.70034155554765
51 2 1.72609 31.2897 31.9672 23.700663555547646
52 2 1.60074 21.5482 31.9911 23.703907555547648
53 2 1.68325 26.3051 6.66233 23.705891555547648
54 2 1.70557 18.9809 10.8751 23.715241555547646
55 2 1.58929 23.9367 10.7748 23.717712555547646
56 2 1.60742 38.31800000000001 2.46191 23.74041215554765
57 2 1.69458 33.6204 10.9207 23.754878755547647
58 2 1.66812 31.1953 6.8109600000000015 23.783391455547648
59 2 1.7169299999999998 33.6812 19.1873 23.793574555547647
60 2 1.55464 28.8065 18.9307 23.797716555547648
61 2 1.6614099999999998 6.7035399999999985 23.4867 23.84239742554765
62 2 1.58491 18.8797 27.5352 23.860691655547647
63 2 1.6885599999999998 36.0755 15.1582 23.87301065554765
64 2 1.6287 14.1462 19.0467 23.967605555547646
65 1 -1.1336 0.342087 20.7986 24.234921555547647
66 1 -0.996091 5.18118 26.3214 24.251438555547647
67 1 -1.18974 12.4703 27.4997 24.27925155554765
68 1 -1.01663 34.5243 23.36 24.287416555547647
69 1 -1.04389 37.0972 22.1369 24.28823055554765
70 1 -1.13284 24.9104 1.17637 24.306897555547646
71 1 -1.13434 36.9101 25.2822 24.315074555547646
72 1 -1.08656 7.35198 8.01582 24.31863355554765
73 1 -1.13627 17.5899 21.9198 24.31865055554765
74 1 -1.17564 9.99316 6.48674 24.326057555547646
75 1 -1.13821 12.6004 13.693 24.339154555547648
76 1 -1.12533 24.5277 12.3832 24.346225555547647
77 1 -1.08382 10.2426 9.52036 24.346908555547646
78 1 -1.05765 27.1991 30.5248 24.346979555547648
79 1 -1.17535 17.2881 10.8545 24.348357555547647
80 1 -1.08037 29.578000000000007 12.5094 24.34991755554765
81 1 -1.05559 0.193001 12.3454 24.35280055554765
82 1 -1.13678 22.2193 19.1195 24.353548555547647
83 1 -1.0122 29.4043 20.803 24.354038555547646
84 1 -1.22126 31.8612 25.0896 24.354836555547646
85 1 -1.16309 22.276 16.6456 24.363717555547648
86 1 -1.06382 20.1403 17.6951 24.377969555547647
87 1 -1.13352 9.97126 31.7403 24.382775555547646
88 1 -1.1262299999999998 5.3356900000000005 1.01224 24.384905555547647
89 1 -1.14764 36.6345 7.98455 24.385663555547648
90 1 -1.03888 2.65806 24.8455 24.38651755554765
91 1 -1.09519 2.76868 27.5364 24.386933555547646
92 1 -1.21292 14.9025 29.0746 24.38834255554765
93 1 -1.10309 32.2118 13.709 24.390901555547646
94 1 -1.01604 22.3648 22.2742 24.391184555547646
95 1 -1.04676 14.9751 23.2956 24.39179555554765
96 1 -1.17851 0.253146 23.3858 24.39200955554765
97 1 -1.06869 17.3229 16.2954 24.398363555547647
98 1 -1.14271 22.4987 5.2709199999999985 24.40005855554765
99 1 -1.09568 5.45511 17.8372 24.404822555547646
100 1 -1.1226 2.99492 13.5769 24.404867555547646
101 1 -1.16647 2.93788 21.9506 24.406288555547647
102 1 -1.06475 27.0754 10.9891 24.407502555547648
103 1 -1.12253 0.301293 29.0967 24.407659555547646
104 1 -1.08541 29.5303 6.60072 24.408759555547647
105 1 -1.05369 32.0415 27.8807 24.412561555547647
106 1 -1.12949 19.845 12.467 24.417151555547647
107 1 -1.0498 29.5268 3.86708 24.419504555547647
108 1 -1.0783 17.4438 18.8296 24.420510555547647
109 1 -1.01713 27.2967 16.4648 24.42454855554765
110 1 -1.09849 7.6978399999999985 16.5476 24.424585555547647
111 1 -1.05436 24.7971 31.9935 24.42594555554765
112 1 -1.12073 19.7992 14.8999 24.431210555547647
113 1 -1.0905200000000002 32.1422 22.1116 24.436749555547646
114 1 -1.13936 22.2309 27.477 24.43812055554765
115 1 -1.09379 14.9059 14.7904 24.43850155554765
116 1 -1.02516 10.2646 15.0365 24.440385555547646
117 1 -1.08424 12.6131 33.2869 24.441026555547648
118 1 -1.20014 24.6557 6.3577 24.443127555547647
119 1 -1.12753 25.0023 17.8469 24.443545555547647
120 1 -1.0502200000000002 12.5096 30.3645 24.446656555547648
121 1 -1.1134 14.9771 20.5982 24.44972255554765
122 1 -1.14828 5.05167 12.345 24.451137555547646
123 1 -1.21533 31.955 -0.302702 24.45206655554765
124 1 -1.09151 12.6504 22.041 24.45293755554765
125 1 -1.16189 17.2751 24.8838 24.45524555554765
126 1 -1.13474 34.3885 20.8111 24.455547555547646
127 1 -1.1478 29.4593 23.3651 24.45683955554765
128 1 -1.15252 22.183000000000003 2.37838 24.460574555547648
129 1 -1.10983 22.131 8.23615 24.46347855554765
130 1 -1.0323 10.3376 17.9036 24.46857955554765
131 1 -1.17958 22.2877 -0.136942 24.46924655554765
132 1 -1.03928 19.7346 31.6332 24.470999555547646
133 1 -1.12968 20.0122 0.893983 24.47166955554765
134 1 -1.14064 14.9086 6.52533 24.472397555547648
135 1 -1.09791 7.75062 18.9622 24.477256555547648
136 1 -1.14941 19.9459 9.52896 24.481141555547648
137 1 -1.19953 2.57209 -0.212465 24.481419555547646
138 1 -1.13035 0.211587 31.7475 24.481958555547646
139 1 -1.10781 14.847 12.2283 24.482935555547648
140 1 -1.07157 5.12642 6.31919 24.48585955554765
141 1 -0.965737 7.8250600000000015 13.7881 24.48760155554765
142 1 -1.10334 19.6963 29.2032 24.488056555547647
143 1 -1.06863 22.4887 13.5573 24.48841355554765
144 1 -1.08834 12.6106 5.20556 24.490420555547647
145 1 -1.14312 24.852 26.4682 24.490937555547646
146 1 -1.08774 12.4358 2.18023 24.49099955554765
147 1 -1.03014 27.0916 19.2261 24.49110655554765
148 1 -1.07491 27.1599 22.2113 24.495936555547647
149 1 -1.02433 5.29631 9.4357 24.496464555547647
150 1 -1.05579 14.806 9.45594 24.496645555547648
151 1 -1.25309 17.0951 8.47605 24.49872355554765
152 1 -1.13719 22.0822 10.7053 24.499477555547646
153 1 -1.04933 34.5259 3.90826 24.500554555547648
154 1 -1.16025 15.1141 17.6745 24.50212055554765
155 1 -1.05175 7.555039999999999 -0.307441 24.504037555547647
156 1 -1.15761 27.4397 13.818 24.505043555547648
157 1 -1.07544 7.43643 10.6428 24.505892555547646
158 1 -1.03809 19.6061 6.6097800000000015 24.507002555547647
159 1 -1.10484 2.64911 10.7965 24.50996955554765
160 1 -1.08621 5.08933 29.2443 24.511990555547648
161 1 -1.24811 17.2301 27.4423 24.51388555554765
162 1 -1.12805 31.9548 19.0403 24.518581555547648
163 1 -1.05359 10.3578 1.01084 24.519381555547646
164 1 -1.18772 19.7913 20.8736 24.520117555547646
165 1 -1.13868 32.2415 30.5807 24.524306555547646
166 1 -1.10509 24.4983 23.5029 24.524770555547647
167 1 -1.10951 34.6039 26.4112 24.525623555547647
168 1 -1.07038 27.0005 25.0525 24.525716555547646
169 1 -1.08268 12.4237 8.29677 24.527147555547646
170 1 -0.966626 29.4999 26.468000000000004 24.528417555547648
171 1 -1.02465 27.2116 -0.167261 24.529238555547646
172 1 -1.12915 29.55 29.2911 24.530846555547647
173 1 -1.0494 10.0192 29.2671 24.531668555547647
174 1 -1.05754 17.3381 2.33248 24.535296555547646
175 1 -1.04166 0.465674 1.1213 24.53666455554765
176 1 -1.04166 12.5854 16.5439 24.536890555547647
177 1 -1.19175 34.2851 6.38496 24.538296555547646
178 1 -1.17321 27.0616 8.37594 24.538578555547648
179 1 -1.0913 10.0145 4.06396 24.541663555547647
180 1 -1.11812 0.407436 4.0225300000000015 24.54308555554765
181 1 -1.06273 5.27491 20.514 24.54892355554765
182 1 -1.05616 19.4785 3.94514 24.552309555547648
183 1 -1.19243 19.9575 26.2153 24.552992555547647
184 1 -1.25229 34.3243 29.3021 24.55554155554765
185 1 -1.09058 24.5178 20.9617 24.55644055554765
186 1 -1.0982299999999998 7.7631 30.4248 24.560720555547647
187 1 -1.00274 17.3301 13.5107 24.56274755554765
188 1 -1.13224 32.0236 10.8684 24.565448555547647
189 1 -1.16093 24.4961 3.94927 24.566806555547647
190 1 -1.0736 0.546621 17.9995 24.568717555547646
191 1 -1.01263 5.2527300000000015 15.0127 24.570595555547648
192 1 -1.05843 17.3269 -0.298152 24.571206555547647
193 1 -1.15068 34.4684 17.8475 24.571313555547647
194 1 -1.1719700000000002 36.7661 27.5626 24.577011555547646
195 1 -1.10498 34.3162 31.8569 24.578581555547647
196 1 -1.12467 0.5604 26.2776 24.58216355554765
197 1 -1.16272 2.88404 5.1620300000000015 24.582714555547646
198 1 -1.10932 29.6954 14.8975 24.59487555554765
199 1 -1.12077 7.59175 2.1165 24.596037555547646
200 1 -1.10503 2.87238 19.1118 24.59759155554765
201 1 -1.16454 31.9668 5.2625199999999985 24.59974155554765
202 1 -1.08933 5.15645 31.8042 24.600499555547646
203 1 -1.14342 36.8907 19.1912 24.600911555547647
204 1 -1.14819 10.0542 23.3451 24.60261055554765
205 1 -1.06596 24.4624 14.8253 24.605553555547647
206 1 -1.12509 0.318674 6.44797 24.605617555547646
207 1 -1.11782 12.4347 19.0499 24.611757555547648
208 1 -1.0099200000000002 5.18199 3.87558 24.618385555547647
209 1 -1.12909 36.5849 2.2530900000000003 24.619405555547647
210 1 -1.09061 19.7005 23.4435 24.620594555547648
211 1 -1.14079 2.96826 30.4358 24.622141555547646
212 1 -1.16016 36.8757 5.23807 24.622339555547647
213 1 -1.17514 36.8499 30.5951 24.624664555547646
214 1 -1.15389 22.2482 24.9916 24.627216555547648
215 1 -1.12575 36.8189 16.6415 24.629583555547647
216 1 -1.25073 29.54 31.7262 24.631926555547647
217 1 -1.0461200000000002 14.9892 0.908875 24.632582555547646
218 1 -1.10774 14.6884 31.5555 24.634659555547646
219 1 -1.08095 2.8525400000000003 8.065669999999999 24.635572555547647
220 1 -1.05946 9.85696 12.4135 24.636301555547647
221 1 -1.07486 17.4916 5.34966 24.636451555547648
222 1 -1.05957 36.7711 -0.212109 24.63668055554765
223 1 -1.19807 5.0944699999999985 23.1748 24.637939555547646
224 1 -1.03702 12.6251 24.9411 24.640998555547647
225 1 -1.04733 12.4582 10.85 24.643209555547646
226 1 -1.13087 0.629689 9.28524 24.644271555547647
227 1 -1.12071 2.83611 2.21931 24.646617555547646
228 1 -1.06169 24.7163 29.2453 24.648875555547647
229 1 -1.12175 7.69648 5.00868 24.651131555547646
230 1 -1.07638 36.8952 13.5756 24.65374655554765
231 1 -1.1239 36.8218 10.602 24.654288555547648
232 1 -1.2005 29.7956 17.6934 24.66079055554765
233 1 -1.07766 17.377 30.3202 24.66240455554765
234 1 -1.14592 2.7251 16.4589 24.662534555547648
235 1 -1.0756 10.2848 26.1931 24.662640555547647
236 1 -1.0614 31.9874 16.6139 24.662684555547646
237 1 -1.15798 27.1306 5.30035 24.66352355554765
238 1 -1.09464 7.72995 22.0504 24.667787555547648
239 1 -1.20234 31.831 8.3635 24.672928555547646
240 1 -1.11991 34.3577 9.39577 24.67786355554765
241 1 -1.12055 24.8076 9.32965 24.678370555547648
242 1 -1.06316 34.5541 1.0043799999999998 24.67881055554765
243 1 -1.1519700000000002 10.1043 20.8468 24.68139855554765
244 1 -1.02054 27.0863 27.6976 24.683422555547647
245 1 -1.13267 15.1081 26.3119 24.684445555547647
246 1 -1.05782 27.1709 2.34171 24.697042555547647
247 1 -1.1632 31.9122 2.42263 24.705186555547648
248 1 -1.0676 22.5125 30.6763 24.713335555547648
249 1 -1.05452 14.8388 3.81307 24.720410555547648
250 1 -1.08889 7.60197 25.0362 24.72109155554765
251 1 -1.12439 29.8085 9.5996 24.732266555547646
252 1 -1.17471 34.4165 14.8704 24.75984855554765
253 1 -1.113 0.247161 14.9365 24.760728555547647
254 1 -1.11183 7.545439999999998 27.4067 24.770589555547648
255 1 -1.06326 29.8321 0.918823 24.77279555554765
256 1 -1.06689 34.4235 12.257 24.93326855554765
257 2 1.58801 38.302 7.86222 25.14723855554765
258 2 1.71652 21.5008 20.5525 25.18814855554765
259 2 1.6862400000000002 11.6997 28.9857 25.21358855554765
260 2 1.62846 18.8407 8.26896 25.214918555547648
261 2 1.67744 28.743 24.8294 25.249388555547647
262 2 1.70521 28.8439 33.0068 25.25579855554765
263 2 1.58931 26.4002 12.5259 25.258218555547646
264 2 1.68016 36.1006 20.7603 25.262678555547648
265 2 1.64884 31.3064 12.2782 25.263808555547648
266 2 1.62766 21.6597 3.80777 25.273468555547648
267 2 1.62392 1.95134 20.6425 25.277258555547647
268 2 1.65232 16.4515 28.9619 25.280618555547647
269 2 1.64122 23.9631 16.4342 25.287358555547648
270 2 1.61864 4.3776199999999985 33.2271 25.307828555547648
271 2 1.61121 9.29226 7.888889999999999 25.308398555547647
272 2 1.74528 28.9059 16.3631 25.312098555547646
273 2 1.6609 9.34362 33.1981 25.317068555547646
274 2 1.70067 18.9329 24.9314 25.34204855554765
275 2 1.5692700000000002 23.992 -0.0520903 25.353468555547646
276 2 1.81607 31.2243 3.9176 25.35771855554765
277 2 1.70514 14.0367 8.05917 25.35931855554765
278 2 1.59558 1.89165 29.1643 25.364058555547647
279 2 1.7594900000000002 23.905 24.9879 25.36580855554765
280 2 1.64518 6.739789999999998 12.112 25.368448555547648
281 2 1.64373 31.1544 20.5839 25.369888555547647
282 2 1.73197 21.4421 12.3378 25.372328555547647
283 2 1.6748900000000002 33.4627 8.001660000000001 25.380698555547646
284 2 1.68653 23.9662 7.82532 25.38117855554765
285 2 1.71677 36.0868 12.1495 25.396888555547648
286 2 1.67749 18.9922 16.3315 25.399038555547648
287 2 1.63594 38.4433 33.2532 25.401508555547647
288 2 1.7573299999999998 2.00821 3.79187 25.40314855554765
289 2 1.74843 14.1874 24.8335 25.40352855554765
290 2 1.59999 16.8049 20.5579 25.40754855554765
291 2 1.69858 31.198 29.1034 25.410138555547647
292 2 1.74879 4.36271 16.5357 25.41101855554765
293 2 1.66905 11.68 3.88601 25.412828555547648
294 2 1.69691 33.4193 -0.328435 25.41468855554765
295 2 1.68013 -0.281663 16.4646 25.43466855554765
296 2 1.6614 -0.340132 24.8639 25.435108555547647
297 2 1.69715 35.9686 3.85489 25.439018555547648
298 2 1.6286 6.81363 29.0909 25.43917855554765
299 2 1.69521 26.2199 3.83069 25.444948555547647
300 2 1.6590900000000002 6.82181 20.5803 25.45344855554765
301 2 1.74629 16.5641 12.126 25.455548555547647
302 2 1.61726 9.3088 16.3213 25.455578555547646
303 2 1.60772 26.365 20.8214 25.46244855554765
304 2 1.6624599999999998 16.6364 3.88971 25.48102855554765
305 2 1.6804599999999998 14.1412 33.222 25.481758555547646
306 2 1.6517400000000002 35.9516 29.2457 25.485508555547646
307 2 1.7285 26.3031 29.1725 25.49286855554765
308 2 1.6980400000000002 19.0825 33.2855 25.495698555547648
309 2 1.69953 11.7482 20.7201 25.503528555547646
310 2 1.68041 28.7906 8.14383 25.50382855554765
311 2 1.6473 4.3914800000000005 24.7812 25.511298555547647
312 2 1.6548 6.85422 3.63206 25.517888555547646
313 2 1.66121 2.02415 12.2156 25.518078555547646
314 2 1.6985599999999998 14.1569 16.326 25.533168555547647
315 2 1.64707 9.37305 24.6949 25.54221855554765
316 2 1.64631 4.47775 7.9062800000000015 25.546658555547648
317 2 1.55491 33.665 24.9843 25.552428555547646
318 2 1.67796 21.457 29.0419 25.56934855554765
319 2 1.70718 11.6204 12.1962 25.61194855554765
320 2 1.74659 33.6657 16.45 25.63323855554765
321 2 1.7296 33.6337 21.9691 25.634338555547647
322 2 1.75108 21.5432 9.50185 25.66448855554765
323 2 1.7729400000000002 16.5675 9.55997 25.691968555547646
324 2 1.70344 21.54 26.3207 25.70645855554765
325 2 1.57401 21.5187 0.933712 25.711118555547646
326 2 1.6889900000000002 14.2553 21.8696 25.720288555547647
327 2 1.68219 16.5337 26.1675 25.720398555547646
328 2 1.55533 31.2552 26.2973 25.731728555547647
329 2 1.73493 23.8894 5.20383 25.745828555547646
330 2 1.72104 4.35166 5.21109 25.753418555547647
331 2 1.6432099999999998 11.8078 0.976034 25.764988555547646
332 2 1.59297 18.9968 13.5009 25.773598555547647
333 2 1.7163700000000002 4.3983300000000005 22.0652 25.773788555547647
334 2 1.66232 7.113860000000002 17.7833 25.77982855554765
335 2 1.72683 26.2431 9.43681 25.783148555547648
336 2 1.60992 14.2538 5.3459900000000005 25.786058555547648
337 2 1.6869 11.826 9.47324 25.802198555547648
338 2 1.73372 23.9384 13.5951 25.802328555547646
339 2 1.67439 18.9721 5.2695 25.802478555547648
340 2 1.71157 2.09852 17.9211 25.80281855554765
341 2 1.83337 35.9697 1.10025 25.802988555547646
342 2 1.6045200000000002 16.5249 0.959316 25.80310855554765
343 2 1.7346700000000002 21.4798 17.5953 25.804638555547648
344 2 1.6357700000000002 4.49028 13.4107 25.813098555547647
345 2 1.67795 19.0313 21.984 25.814898555547646
346 2 1.6732 28.8634 30.5402 25.816838555547648
347 2 1.63554 9.07552 5.0113400000000015 25.825878555547646
348 2 1.7038400000000002 33.5799 5.2873199999999985 25.826518555547647
349 2 1.6478400000000002 38.4467 22.2642 25.833498555547646
350 2 1.60512 16.5672 17.7106 25.836488555547646
351 2 1.67508 28.8114 13.7887 25.84063855554765
352 2 1.6262 28.5722 22.1345 25.841898555547647
353 2 1.6307 35.9951 17.9639 25.849498555547648
354 2 1.68453 14.1544 13.6266 25.85022855554765
355 2 1.5463 11.6732 26.3042 25.851748555547648
356 2 1.59732 36.0322 9.39277 25.858808555547647
357 2 1.59781 6.742960000000001 9.42695 25.863008555547648
358 2 1.65946 36.2011 26.3483 25.86578855554765
359 2 1.6652900000000002 19.0177 30.3544 25.875338555547646
360 2 1.60685 -0.335841 5.16783 25.876898555547648
361 2 1.74973 31.294 17.8174 25.882728555547647
362 2 1.73771 2.1331900000000004 0.8399479999999999 25.886328555547646
363 2 1.68475 26.1861 17.9267 25.89160855554765
364 2 1.59844 38.2913 30.6535 25.894648555547647
365 2 1.7209599999999998 33.7021 13.7807 25.902348555547647
366 2 1.58521 9.40941 22.0151 25.903578555547647
367 2 1.63758 -0.415304 13.6702 25.904328555547647
368 2 1.7661099999999998 33.6146 30.5299 25.905238555547648
369 2 1.63546 14.1473 30.4342 25.913058555547646
370 2 1.70943 9.22345 30.4117 25.913208555547648
371 2 1.61391 6.98291 1.03465 25.916318555547647
372 2 1.69543 11.6579 17.7374 25.929658555547647
373 2 1.6867900000000002 28.4783 5.35797 25.931468555547646
374 2 1.75008 31.0851 9.5597 25.95391855554765
375 2 1.60233 23.9734 30.5328 25.953968555547647
376 2 1.7048900000000002 23.879 22.1041 25.955658555547647
377 2 1.6598400000000002 4.29642 30.3633 25.960998555547647
378 2 1.72182 31.3286 1.20772 25.968908555547646
379 2 1.64457 1.95982 9.31541 25.97099855554765
380 2 1.66409 26.3366 26.5034 25.989978555547648
381 2 1.66613 26.6322 1.09081 26.049858555547647
382 2 1.56882 2.02256 26.3496 26.053148555547647
383 2 1.69753 7.0111300000000005 26.1867 26.062098555547646
384 2 1.7268599999999998 9.39946 13.5583 26.12903855554765
385 1 -1.10805 35.2968 21.9997 26.403268555547648
386 1 -1.02302 30.1388 5.06074 26.408808555547648
387 1 -1.13084 22.8028 20.6317 26.444508555547646
388 1 -1.15353 8.62239 9.23892 26.467868555547646
389 1 -1.03732 20.7281 19.2212 26.481648555547647
390 1 -1.02221 27.8387 17.6856 26.491978555547647
391 1 -1.06736 23.106 9.29581 26.497848555547648
392 1 -1.17695 15.8504 21.8733 26.50363855554765
393 1 -1.13756 18.2185 20.4354 26.50515855554765
394 1 -1.14442 13.3138 20.64 26.509428555547647
395 1 -1.07285 18.345 31.8756 26.515178555547646
396 1 -1.0993 8.553519999999999 32.0686 26.517768555547647
397 1 -1.15336 25.3505 16.395 26.529038555547647
398 1 -1.24871 20.3628 16.4053 26.531768555547647
399 1 -0.954743 1.2537200000000002 2.43288 26.538138555547647
400 1 -1.15772 18.2064 9.42736 26.547218555547648
401 1 -1.0185799999999998 32.9561 23.403 26.554258555547648
402 1 -1.07386 28.1316 26.2771 26.55919855554765
403 1 -1.1249 23.1545 12.2377 26.569848555547647
404 1 -1.11945 1.05621 16.6952 26.570618555547647
405 1 -1.0811 27.8869 29.1533 26.573708555547647
406 1 -1.14745 3.55186 12.0239 26.573788555547647
407 1 -1.10277 10.81 27.8391 26.576968555547648
408 1 -1.06213 22.896 28.9286 26.580178555547647
409 1 -1.16935 23.1851 6.65337 26.581948555547648
410 1 -1.13126 32.8753 6.706339999999999 26.583638555547648
411 1 -1.08233 18.433 0.8863280000000001 26.584048555547646
412 1 -1.16952 25.6063 30.4733 26.599038555547647
413 1 -1.0718 11.0391 2.58743 26.599918555547646
414 1 -1.10991 30.6576 30.4414 26.602118555547648
415 1 -1.11434 10.8827 10.8466 26.603048555547648
416 1 -1.19118 18.0612 12.1988 26.60461855554765
417 1 -1.06286 25.7041 10.9387 26.607178555547648
418 1 -1.08416 6.10881 13.5489 26.60857855554765
419 1 -1.07157 20.6591 2.6095900000000003 26.608818555547646
420 1 -1.13436 10.8736 7.95223 26.612338555547648
421 1 -1.07089 20.801 11.0014 26.612628555547648
422 1 -1.1413799999999998 30.5668 19.4783 26.619338555547646
423 1 -1.05795 32.6238 20.613000000000003 26.619478555547648
424 1 -1.10673 15.6702 24.7373 26.62019855554765
425 1 -1.15861 35.2996 19.5016 26.624838555547647
426 1 -1.12002 30.194000000000006 24.7816 26.62790855554765
427 1 -1.15446 37.6396 23.5723 26.627968555547646
428 1 -1.22919 15.8243 10.9198 26.628238555547647
429 1 -1.15488 27.794 20.7443 26.628438555547646
430 1 -1.15382 20.7283 5.02302 26.628508555547647
431 1 -1.18531 13.4918 6.83517 26.629648555547647
432 1 -1.07602 1.23859 19.5866 26.631068555547646
433 1 -1.13533 18.1485 26.0973 26.635068555547647
434 1 -1.11759 32.7579 3.8499 26.637458555547646
435 1 -1.09109 10.8999 19.2196 26.639948555547647
436 1 -1.12894 25.6876 13.5265 26.640528555547647
437 1 -1.12844 25.401 22.1 26.640648555547646
438 1 -1.21088 6.10136 11.0162 26.644088555547647
439 1 -1.10243 8.47964 6.76253 26.644728555547648
440 1 -1.12565 20.8569 13.5469 26.646618555547647
441 1 -1.12342 25.4485 -0.159485 26.647848555547647
442 1 -1.03782 35.142 24.8218 26.64807855554765
443 1 -1.16226 28.0387 6.875489999999999 26.65022855554765
444 1 -1.11637 13.2099 12.2918 26.65511855554765
445 1 -1.06731 6.22082 19.3003 26.659668555547647
446 1 -1.14076 15.7566 13.4989 26.660588555547648
447 1 -1.10888 3.42732 20.7551 26.666138555547647
448 1 -1.0943 15.9499 5.31457 26.66617855554765
449 1 -1.20947 13.1492 29.1203 26.66966855554765
450 1 -1.11208 35.2716 30.4456 26.67312855554765
451 1 -1.1239 23.0876 17.6278 26.674658555547648
452 1 -1.15864 37.8366 26.2096 26.674698555547646
453 1 -1.08671 18.2986 6.89757 26.67529855554765
454 1 -1.10034 5.9462 16.6375 26.676778555547646
455 1 -1.06789 22.844 15.1161 26.678128555547648
456 1 -1.04603 3.91101 15.191 26.67856855554765
457 1 -1.09228 5.8676 33.2129 26.68007855554765
458 1 -1.18755 5.86027 24.9399 26.680958555547647
459 1 -1.08871 28.1034 15.3288 26.682198555547647
460 1 -1.13925 30.2769 8.07138 26.683388555547648
461 1 -1.18771 3.6032 26.1313 26.685178555547648
462 1 -1.14953 10.8674 30.2147 26.687808555547647
463 1 -1.13343 23.0321 3.83634 26.688088555547647
464 1 -1.09169 20.7143 21.9425 26.68869855554765
465 1 -1.04371 37.7328 0.990714 26.68954855554765
466 1 -1.12639 25.4911 19.432 26.69996855554765
467 1 -1.21071 3.7104 17.6358 26.70101855554765
468 1 -1.07628 27.885 12.3093 26.70212855554765
469 1 -1.13462 23.2129 26.1153 26.70287855554765
470 1 -1.04419 10.8777 5.1050900000000015 26.704048555547647
471 1 -1.11523 5.96446 7.82118 26.70475855554765
472 1 -1.10798 18.2595 17.6579 26.705198555547646
473 1 -1.17324 30.5519 27.6509 26.708548555547647
474 1 -1.0299 8.395760000000001 20.4776 26.710608555547648
475 1 -1.11905 25.6028 2.54253 26.71075855554765
476 1 -1.14623 18.2171 23.467 26.710828555547646
477 1 -1.06456 15.7568 19.2091 26.713728555547647
478 1 -1.10371 10.8511 16.2197 26.715228555547647
479 1 -1.1383299999999998 37.4622 3.7828 26.71610855554765
480 1 -1.11495 37.5701 20.9617 26.717858555547647
481 1 -1.12481 8.60208 15.0821 26.71884855554765
482 1 -1.07247 20.4467 24.8818 26.719008555547646
483 1 -1.0021799999999998 3.50322 31.9326 26.72332855554765
484 1 -1.03908 15.6229 8.208969999999999 26.72419855554765
485 1 -1.13018 3.74467 23.6251 26.726378555547647
486 1 -1.15834 32.8986 17.7152 26.728378555547646
487 1 -1.09028 27.9674 9.3648 26.728618555547648
488 1 -1.04906 1.21326 10.8836 26.730528555547647
489 1 -1.12424 35.142 16.4788 26.731018555547646
490 1 -1.12268 20.8124 27.7992 26.731248555547648
491 1 -1.02888 20.5871 7.906739999999999 26.731478555547646
492 1 -1.07984 35.1978 7.9039 26.73291855554765
493 1 -1.13108 25.3076 7.9929999999999986 26.733518555547647
494 1 -1.14953 13.4096 15.0537 26.737248555547648
495 1 -1.15624 25.6877 4.98358 26.737278555547647
496 1 -1.028 30.3595 21.9462 26.737458555547647
497 1 -1.13655 37.4123 29.1861 26.740928555547647
498 1 -1.09561 37.7863 6.9378199999999985 26.741038555547647
499 1 -1.12647 28.097 31.9847 26.742608555547648
500 1 -1.08148 3.35435 3.71996 26.743588555547646
501 1 -1.07125 32.7065 12.3395 26.746118555547646
502 1 -1.07036 35.0944 -0.304095 26.747758555547648
503 1 -1.03855 1.1976 33.1508 26.748638555547647
504 1 -1.07021 28.0448 23.723000000000006 26.749008555547647
505 1 -1.12789 13.3631 31.9607 26.752468555547647
506 1 -1.15763 15.4844 16.3649 26.753038555547647
507 1 -1.1488200000000002 18.1974 15.1432 26.757008555547646
508 1 -1.11187 30.5469 13.6923 26.757068555547647
509 1 -1.15312 32.6719 29.1528 26.76105855554765
510 1 -1.15818 25.3144 24.9279 26.761858555547647
511 1 -1.17021 32.9502 26.1354 26.761988555547646
512 1 -1.0974700000000002 35.2309 2.47828 26.76630855554765
513 1 -1.08101 10.683 33.2623 26.768078555547646
514 1 -1.08382 1.06101 30.479 26.770088555547648
515 1 -1.09853 13.4951 25.9828 26.770148555547646
516 1 -1.06854 13.4739 23.4392 26.77120855554765
517 1 -1.24796 32.8275 0.905388 26.77278855554765
518 1 -1.0242 17.8963 3.80949 26.77298855554765
519 1 -1.04033 30.2584 33.31 26.77335855554765
520 1 -1.14422 8.307160000000001 12.3065 26.775548555547648
521 1 -1.11282 5.89858 2.46041 26.775948555547647
522 1 -1.05758 5.9751699999999985 21.7876 26.77730855554765
523 1 -1.22001 32.7927 15.2511 26.777748555547646
524 1 -1.09317 3.71885 6.63979 26.780358555547647
525 1 -1.1314799999999998 13.5 9.35894 26.781108555547647
526 1 -0.99886 13.2267 3.71363 26.782788555547647
527 1 -1.25674 11.0398 21.9888 26.783348555547647
528 1 -1.13733 8.22552 29.1832 26.789478555547646
529 1 -1.09007 15.7283 33.2887 26.79110855554765
530 1 -1.08073 20.5112 33.2067 26.79307855554765
531 1 -1.18541 8.18727 3.616 26.79390855554765
532 1 -1.13189 30.5609 2.65568 26.79851855554765
533 1 -1.07379 15.7278 2.602 26.804158555547648
534 1 -1.08085 18.1731 28.9949 26.80450855554765
535 1 -1.16587 30.4455 11.0349 26.809978555547648
536 1 -1.08783 32.8926 32.0185 26.811348555547646
537 1 -1.07279 13.3271 0.794357 26.811568555547648
538 1 -1.10255 1.3062 13.4014 26.816278555547647
539 1 -1.0701 6.0978900000000005 27.773000000000003 26.816368555547648
540 1 -1.12205 23.2087 23.6909 26.816858555547647
541 1 -1.15674 3.65545 0.740047 26.823978555547647
542 1 -1.07492 8.56199 0.731256 26.82459855554765
543 1 -1.0014 35.3832 13.5193 26.826978555547647
544 1 -1.11231 37.6772 15.2076 26.82806855554765
545 1 -1.18301 0.977329 24.8782 26.830108555547646
546 1 -1.14213 20.8641 30.2904 26.83088855554765
547 1 -1.03915 5.96924 30.341 26.831658555547648
548 1 -1.05958 1.2511 22.1303 26.837238555547646
549 1 -1.27752 10.9367 13.3212 26.837908555547646
550 1 -1.12686 23.193 0.927876 26.843238555547646
551 1 -1.03952 5.89913 5.06431 26.84616855554765
552 1 -1.02981 3.74696 9.28586 26.847248555547647
553 1 -1.07406 27.7556 3.84781 26.850848555547646
554 1 -1.1586 1.26445 27.9518 26.852528555547647
555 1 -1.18339 8.78942 17.6138 26.86081855554765
556 1 -1.00424 15.9115 30.4322 26.86091855554765
557 1 -1.0793700000000002 37.649 12.2845 26.867168555547646
558 1 -1.01292 37.6772 9.31476 26.876008555547646
559 1 -1.11618 10.7824 24.7879 26.87648855554765
560 1 -1.16388 35.2785 27.7946 26.879828555547647
561 1 -1.08096 32.8405 9.26023 26.88888855554765
562 1 -1.11239 13.2713 17.4925 26.88933855554765
563 1 -1.17199 25.6521 27.8653 26.890678555547648
564 1 -1.10936 1.24425 5.01804 26.893548555547646
565 1 -1.0941299999999998 8.65644 26.0122 26.895398555547647
566 1 -1.10943 35.245 5.21047 26.90388855554765
567 1 -1.19138 37.807 32.254 26.907988555547647
568 1 -1.04944 35.435 11.0409 26.924658555547648
569 1 -1.01892 30.4281 16.4105 26.932188555547647
570 1 -1.01039 1.10316 7.92158 26.935868555547646
571 1 -1.11616 15.8044 27.9816 26.945788555547647
572 1 -1.15989 28.1646 0.897689 26.950268555547648
573 1 -1.03125 37.695 17.8719 26.962128555547647
574 1 -1.11209 3.4328199999999995 29.0414 26.97128855554765
575 1 -1.01202 23.1019 31.9757 27.040578555547647
576 1 -1.04574 8.43169 23.5777 27.04202855554765
577 2 1.65628 31.0975 23.5538 27.377208555547647
578 2 1.57807 4.3096 19.2285 27.393448555547646
579 2 1.62886 16.5703 23.3682 27.42349855554765
580 2 1.7484099999999998 21.3105 15.1157 27.44151855554765
581 2 1.58531 14.1346 27.7984 27.44678855554765
582 2 1.4775 2.1153 15.0 27.449298555547646