LAMMPS data file via write_data, version 16 Mar 2018, timestep = 5000

8466 atoms
2 atom types

-4.2136000000000001e-01 3.8484999999999999e+01 xlo xhi
-3.6491000000000001e-01 3.3328000000000003e+01 ylo yhi
0.0000000000000000e+00 8.4869200000000006e+01 zlo zhi

Masses

1 16.01
2 26.98

Atoms # charge

7371 2 2.9390953013246355e-03 1.1869079353997061e+00 6.7987628513199816e+00 2.0933519539388397e+00 0 0 0
6041 2 2.6229418933911130e-03 2.6462545668534658e+00 5.1001200814127872e+00 6.1996291438681894e-01 0 0 0
6208 2 3.8047446881037724e-03 2.5393014599484456e+00 6.7508340577691603e+00 4.8920243662235698e+00 0 0 0
6209 2 2.6705005661569470e-03 3.2231548902488987e+00 4.7680746999041324e+00 6.5625938794235346e+00 0 0 0
6228 2 3.7390354962815475e-03 2.2634385507256800e+00 3.1290126193381895e-01 3.4881795571465535e+00 0 0 0
6235 2 3.4418238994899071e-03 3.9205316349819990e+00 2.3679596820559952e+00 4.2021869943899226e+00 0 0 0
6286 2 2.4451700040252324e-03 4.0859505013746045e+00 7.3688749592615901e+00 1.7173247266731106e+00 0 0 0
7446 2 3.1434973927492475e-03 4.8356575996325804e+00 4.5223162221142097e+00 2.2645866390956222e+00 0 0 0
7491 2 3.4864904263312139e-03 1.9884288294867283e+00 4.1513834713649507e+00 3.2071833941985761e+00 0 0 0
8074 2 3.1285785587954794e-03 1.5888278699817400e+00 2.6666674286631520e+00 5.8027926203701954e+00 0 0 0
5984 2 3.4111566985635879e-03 3.2810064774942407e+00 1.6177624458706668e+00 1.2819416067986413e+00 0 0 1
6266 2 2.4197298377021288e-03 4.6754454100736877e+00 7.3296432837001086e+00 6.5400263868366313e+00 0 0 0
6300 2 3.3519737426250286e-03 5.6397136915181907e+00 6.3653878756408018e+00 4.3569874808533076e+00 0 0 0
6306 2 3.4981492046752055e-03 -2.2584618921405661e-01 5.1123706979222820e+00 4.8743523514648395e+00 1 0 0
6272 2 2.7672941106511783e-03 2.4911479916890920e+00 1.1480296437723511e-02 6.0767537099303688e+00 0 0 0
6132 2 3.0526513066653710e-03 6.5346905504193642e-01 2.5921422763447857e+00 7.6771205443327539e-01 0 0 0
8173 2 3.3424433552260895e-03 5.4238075416137725e+00 -2.7407697801151504e-01 4.4052818915015566e+00 0 1 0
6296 2 3.7060416149870901e-03 -3.0405209577602477e-01 1.0756287444952237e+00 2.7531584008667744e+00 1 0 0
6139 2 2.1864819104274332e-03 6.2458912831337132e+00 4.4044646966678185e+00 6.2698965614693414e+00 0 0 0
6021 2 3.5198151434972891e-03 1.0379915446462917e+01 1.2678095341401692e+00 1.7659278186698590e+00 0 0 0
6037 2 2.5896534671871565e-03 9.1371052623472657e+00 3.0831063185782228e+00 5.8453851579208029e+00 0 0 0
6076 2 5.1334740302150100e-03 1.0360285257892855e+01 3.7968581568370472e+00 3.0951487877957322e+00 0 0 0
6103 2 3.7655916948880338e-03 7.1144813249478203e+00 4.2140631508835948e+00 3.7804183722034486e+00 0 0 0
6109 2 4.8495127732589727e-03 1.1813644372357169e+01 7.8737883998575144e+00 9.3846289123828708e-01 0 0 0
6122 2 3.6606383877550836e-03 8.3920121404289940e+00 7.8578383552580080e+00 3.9760623743978702e+00 0 0 0
6185 2 3.8523804287454678e-03 6.1389234629563099e+00 1.5465727396891362e+00 2.2399624503722726e+00 0 0 0
6252 2 2.6705324192704055e-03 8.5451575999339244e+00 5.8264332590916190e+00 5.9076438124893844e+00 0 0 0
6315 2 4.7028251464976967e-03 8.1601334203351783e+00 3.2925813570587374e+00 1.1669632412896669e+00 0 0 0
6392 2 4.3415729272078306e-03 1.1421304352465274e+01 6.1701050814591092e+00 5.0894992937002055e+00 0 0 0
7599 2 3.2424984634802445e-03 1.1458020787392025e+01 1.3392569889764083e+00 4.4852908109840337e+00 0 0 0
6831 2 2.6708739388516642e-03 6.7908627706989764e+00 1.8951929258744429e+00 5.2301575820873420e+00 0 0 0
6125 2 3.0476716672441727e-03 6.4549433944634202e+00 6.7031725719639423e+00 1.8089344999565811e+00 0 0 1
6035 2 3.5490166679374470e-03 8.6303157057732047e+00 4.3057696654098804e-01 4.0872528589334722e+00 0 0 0
5958 2 2.5376893158519814e-03 1.2367923549019636e+01 1.0829691949038833e-01 5.7041365308136882e-01 0 0 0
7420 2 1.9223913669742382e-03 9.8709326718613148e+00 7.6400169263809192e-01 6.6073949690811169e+00 0 0 0
6211 2 2.2288871098397420e-03 1.2038418325376725e+01 2.9748539014769171e+00 6.7747226333869914e+00 0 0 0
6961 2 2.6276323915316552e-03 1.2639229082760467e+01 1.1511776943120623e-01 6.6644758952338563e+00 0 1 0
7473 2 4.1669633001395314e-03 1.4838425444094558e+01 7.9477657141409779e+00 3.3686833198033925e+00 0 0 1
6045 2 4.3174460403197570e-03 1.3740082187140832e+01 4.6197972374382417e+00 7.9161975823995345e-01 0 0 0
6048 2 4.0394916171042055e-03 1.3493114689311106e+01 4.6696394409931266e+00 4.7158583490293431e+00 0 0 0
6050 2 3.1165238240620638e-03 1.6291918803296586e+01 3.1414962645706566e+00 5.6892537231711782e-01 0 0 0
6052 2 3.8539654748139633e-03 1.6060479597634771e+01 5.5375383722305846e+00 5.0150995126856914e+00 0 0 0
6078 2 3.4245706546840206e-03 1.5430169315969597e+01 3.1046857285856508e+00 3.2282293982775672e+00 0 0 0
6134 2 3.2860370767621473e-03 1.6010400551845247e+01 5.8878911048317422e+00 1.7233540165424432e+00 0 0 0
6204 2 3.5561189943498018e-03 1.4026983734100288e+01 1.8916141023333202e+00 5.1541763523397854e+00 0 0 0
6914 2 3.3885300824759235e-03 1.7545148561469006e+01 3.1373376383711404e+00 5.4863749270905897e+00 0 0 0
7330 2 3.3527203607842016e-03 1.8015753853446309e+01 4.3668724306406261e+00 3.0172575410298763e+00 0 0 0
7415 2 3.3864173308115848e-03 1.2844160441826157e+01 2.1728149280365638e+00 2.0791264257725022e+00 0 0 0
7467 2 3.3816039902043243e-03 1.7844161820207852e+01 1.3312311013131761e+00 2.5920048978099586e+00 0 0 0
7619 2 2.5619175717982211e-03 1.8841904300025671e+01 5.4711175054293237e+00 6.8194734526354255e+00 0 0 0
7648 2 3.4157171929607112e-03 1.5056180507382686e+01 3.0006678651055185e-01 2.0961769289179375e+00 0 1 0
6264 2 4.1512399242005322e-03 1.8021120161719864e+01 -5.2071473327776417e-02 4.8846837502553448e+00 0 1 0
5986 2 3.1862413667042375e-03 1.8396305797373824e+01 5.3651947286284640e+00 6.3242175045355253e-01 0 0 1
6143 2 3.7102307808433051e-03 3.5894184488142207e+00 9.3904805009666408e+00 4.0141011213865738e+00 0 0 0
6179 2 3.2336112457385605e-03 1.8585234753903408e+00 9.8415254423890275e+00 1.8328525345292501e+00 0 0 0
6303 2 2.9827034359548549e-03 2.4332192882626522e+00 1.2838966749877816e+01 6.1881446708991623e+00 0 0 0
6868 2 3.0187933293534027e-03 2.2867246658741687e+00 1.3222490593627889e+01 7.4149477383212292e-01 0 0 0
6981 2 3.4307491372677452e-03 1.8135464463927747e-01 1.2885425773786695e+01 4.4925777836917566e+00 0 0 0
6983 2 2.6816258932832716e-03 2.3683996211735114e+00 1.5926917376785747e+01 1.4859473220070003e+00 0 0 0
7404 2 2.9088884251089100e-03 1.4089378798974477e+00 1.0095886357676845e+01 5.9539266971248646e+00 0 0 0
8176 2 3.2317034034838018e-03 4.5908429197658380e+00 1.0893069871192969e+01 1.6907001735033291e+00 0 0 0
8268 2 3.9827029194752965e-03 3.0475514676469233e+00 1.2925598903699683e+01 3.2620525230173665e+00 0 0 0
6157 2 3.3311650192671335e-03 1.5817317452030338e-01 1.4501752951600185e+01 2.5354624596661490e+00 0 0 0
6222 2 3.5890022386720387e-03 8.7518639871094470e-02 8.8745609989419592e+00 3.9661974186555988e+00 1 0 0
6023 2 3.2485122417769277e-03 2.0445629170087076e+00 1.5274264095250887e+01 4.4271477547390843e+00 0 0 0
6926 2 3.9698849773759752e-03 5.5223967484307650e+00 1.3568364090043874e+01 5.6939797679498563e+00 0 0 0
6768 2 4.6560713108435865e-03 5.2501525221167675e+00 1.4943534303717039e+01 3.0835051779662770e+00 0 0 0
6086 2 2.7668406063398191e-03 4.0524671509722312e+00 1.0548127351082176e+01 6.3582785782741542e+00 0 0 0
6077 2 2.6923919249165328e-03 3.9396928760322316e+00 1.6034636839074576e+01 6.1776284798288641e+00 0 0 0
7417 2 3.6739083602634909e-03 5.9860000415427744e-02 8.8194905330041475e+00 8.2129260142849974e-03 0 0 1
6159 2 4.2369837893499428e-03 6.1100054578062846e+00 1.0937036138792806e+01 4.4460118827574115e+00 0 0 0
6131 2 2.8340115087250846e-03 6.2109399333986595e+00 9.1118323687541452e+00 2.7816779209096234e+00 0 0 0
6065 2 4.8961800359040479e-03 1.0501227766053505e+01 1.1750789563106901e+01 2.6547455606894390e+00 0 0 0
6123 2 3.6783299383556923e-03 8.8634601024021666e+00 1.0433377227752464e+01 4.7033662980213311e+00 0 0 0
6146 2 3.9367887993953261e-03 1.1686516542307873e+01 8.7390732555742581e+00 3.6787001957129402e+00 0 0 0
6149 2 3.3890434856598114e-03 1.1077139154820369e+01 1.2001159114019773e+01 5.4383735340499033e+00 0 0 0
6267 2 3.7164785421781531e-03 9.1500063839337855e+00 9.3890263003753400e+00 1.7570542800733295e+00 0 0 0
6310 2 2.2218598547760742e-03 6.9799806221158676e+00 8.4708559212531078e+00 6.2171988891606320e+00 0 0 0
6177 2 4.9204372534882848e-03 1.1262984790090110e+01 1.4582897280759047e+01 4.1721470669272547e+00 0 0 0
6108 2 5.0910461266952620e-03 7.5325839638704410e+00 1.1595222939096647e+01 7.5707445613599600e-01 0 0 0
6182 2 2.6857981350612032e-03 9.8907921640743144e+00 1.3775977865316371e+01 6.8181905853701874e+00 0 0 0
6162 2 4.2573337028972182e-03 1.1539329424670155e+01 1.0961052748367504e+01 2.1348063204544968e-01 0 0 1
6144 2 4.5285946850297893e-03 6.7654845778039334e+00 1.6139001604843660e+01 1.0371710923956975e-01 0 0 1
6257 2 2.1031491186882701e-03 9.5669683416259943e+00 8.2216013372958052e+00 6.3169664101170699e+00 0 0 0
6313 2 2.4869145089256237e-03 1.2033049721979376e+01 9.3487875495774908e+00 6.3155956629992787e+00 0 0 0
6213 2 3.7284165661468603e-03 7.6265793360478966e+00 1.5461693079219613e+01 5.7147920987931720e+00 0 0 0
6207 2 2.2032042646496796e-03 1.2528880870276904e+01 1.6471420058574381e+01 6.5274436365114772e+00 0 0 0
6072 2 4.1884952199129823e-03 1.2729443153455223e+01 1.6206828031277929e+01 1.9252776418740329e+00 0 0 0
7617 2 2.8012971480015705e-03 1.4642382466649003e+01 8.2028384170858946e+00 6.5534588800539986e+00 0 0 0
6060 2 2.8522810316106411e-03 1.3819336338336358e+01 1.0016724766840003e+01 1.3596009762764958e+00 0 0 0
6256 2 3.4812549025028706e-03 1.4868419943369844e+01 1.5842337198322062e+01 3.9205650708196158e+00 0 0 0
6034 2 4.0826220744220806e-03 1.3785373604885676e+01 1.3192298121022461e+01 3.3051452055898016e+00 0 0 0
5978 2 3.5969459484523334e-03 1.6190348464724011e+01 1.1466384619926039e+01 2.2840342800848052e+00 0 0 0
6080 2 4.1816654817801256e-03 1.6937253029137061e+01 9.5800216226112020e+00 5.0508741814978126e+00 0 0 0
6107 2 3.5062531471101049e-03 1.3930367945558574e+01 1.0469353724731054e+01 4.1241276504711841e+00 0 0 0
6173 2 3.7690075521748571e-03 1.6841603010249081e+01 8.6949874587463629e+00 1.4767378823615138e+00 0 0 0
6247 2 3.1508931904097237e-03 1.7907205845623224e+01 1.5203659430991715e+01 4.8682091697862200e+00 0 0 0
6261 2 2.9997315270974753e-03 1.5813761020948418e+01 1.2799546093184551e+01 5.8674625186884954e+00 0 0 0
7554 2 3.3866139940165779e-03 1.6413684144829435e+01 1.3935756009999421e+01 2.7590738182308447e+00 0 0 0
6760 2 3.5053541958701678e-03 1.5025977279860470e+01 1.5535564837211059e+01 2.0406762347606111e-03 0 0 0
6059 2 4.0900280626787440e-03 1.8099192966803898e+01 1.2145492989451421e+01 4.3845926309962291e+00 0 0 0
8042 2 3.1727143998133067e-03 1.8757361662957702e+01 1.4838956125622117e+01 1.6620128369177616e+00 0 0 0
6033 2 2.2467895445618218e-03 1.5436653579623545e+01 1.5637312388565345e+01 6.9291272494974248e+00 0 0 0
8067 2 2.2743118023262170e-03 1.2745195223099342e+01 1.3909197984872641e+01 7.0506205183960153e+00 0 0 0
7768 2 1.9731389143575100e-03 4.8965047281411928e-01 4.7521199645216061e+00 7.3400165403197244e+00 0 0 0
6916 2 -4.6004113224966236e-03 1.4471496207604191e+00 1.4753193703934746e+00 1.4089345743355636e+01 0 0 0
7000 2 5.9114612112774823e-03 5.2730040041962178e+00 1.2512406392582851e+00 1.0252813023147619e+01 0 1 0
6176 2 4.4418082139628372e-03 1.2261983121059508e+00 6.0242730082179214e+00 9.5958764408037442e+00 0 0 0
6189 2 5.3270178473514528e-03 2.9556478854292969e+00 3.5097261704466831e+00 1.0021543594158256e+01 0 0 0
6196 2 3.7574670356703339e-03 4.1478855883504391e+00 6.5396255704948665e+00 9.1355506085792175e+00 0 0 0
6330 2 1.7497457087463811e-03 3.5299493220945122e-01 7.1081844201774942e+00 1.2114212983032559e+01 0 0 0
6414 2 -3.2393746641431209e-03 3.8118310948536851e+00 2.5986625798093748e+00 1.2841382207631275e+01 0 0 0
6416 2 4.8699605782211875e-03 4.9792084509390794e-01 4.1470566890263463e+00 1.1190014242354410e+01 0 0 0
6439 2 1.7981130400671380e-03 3.7868294317664355e+00 5.2517444202117360e+00 1.1922510745846067e+01 0 0 0
6758 2 2.0545270702807174e-03 4.3001373161405860e+00 2.1372667950251296e+00 7.1981406842484574e+00 0 0 0
6845 2 3.7944096448863881e-03 5.7768621075046935e+00 3.8519282417062231e+00 9.0089103794176424e+00 0 0 0
7664 2 3.0519239893078958e-03 8.5903750176948612e-01 2.6301629989957882e+00 8.7506807591152711e+00 0 0 0
6174 2 5.8859039433087406e-03 2.7605644251741936e+00 8.4518906415458439e-01 1.0437506324557834e+01 0 0 0
6340 2 5.6609597736862333e-03 9.0884244262440073e-02 1.5203251699388998e+00 1.1186171963794552e+01 1 0 0
5822 2 -3.7512112655294083e-03 5.0995936489378701e+00 7.6476973277128639e+00 1.2928816924733827e+01 0 0 0
6909 2 -7.5873707767800552e-04 3.8161132336334309e+00 -1.9610749070025643e-01 1.2585415545203274e+01 0 1 0
6441 2 -6.2174938943668949e-03 6.0901830274036408e+00 1.2629263908861674e+00 1.3283830725574331e+01 0 0 0
7697 2 4.1984052763705277e-03 6.1864552320477850e+00 3.8706268064450651e+00 1.1655775055623298e+01 0 0 0
6980 2 -5.1350547184095714e-03 8.3800892081872309e+00 2.7774779208438334e+00 1.3584903078897685e+01 0 0 0
6019 2 2.1478848715826455e-03 7.1502033654640869e+00 1.6524677640318601e+00 7.7686986871542985e+00 0 0 0
6429 2 5.9418013520613384e-03 6.4517255866608050e+00 7.0423435942400419e+00 1.0866840291495876e+01 0 0 0
6350 2 -5.6510327581122868e-03 9.7679577915965439e+00 5.2750365979004989e+00 1.3566701740799182e+01 0 0 0
6345 2 2.6733220160221581e-03 8.2198946316735153e+00 4.0765177894981521e+00 8.2156078279049911e+00 0 0 0
6187 2 2.7748972059480539e-03 7.0757680042523354e+00 6.6985397334153802e+00 8.2981974707133119e+00 0 0 0
6188 2 3.2604354944081124e-03 1.0993023299866918e+01 4.3366989310548831e+00 8.9662613747511006e+00 0 0 0
6217 2 3.0666108475758029e-03 9.9743968814766379e+00 6.7212713916206868e+00 8.4592029415493979e+00 0 0 0
6226 2 3.8148209174859735e-03 9.7263990162456313e+00 1.6418004550202054e+00 9.1014717218188181e+00 0 0 0
6251 2 5.1326568803747447e-03 1.1635533929812247e+01 6.0436294348888300e+00 1.0885526848538769e+01 0 0 0
6262 2 6.1285036697326404e-03 8.7479297707636992e+00 5.0492147144230275e+00 1.1145641166436416e+01 0 0 0
6265 2 3.6694735722018913e-03 1.0686646320598784e+01 2.8048013693531333e+00 1.1687408097250769e+01 0 0 0
6304 2 6.3547707991800277e-03 7.7392504214776743e+00 1.6169095725053990e+00 1.0909484781853143e+01 0 0 0
6334 2 -1.9350228538624330e-03 8.8267445348886024e+00 7.5083716790869053e+00 1.2525711869711532e+01 0 0 0
6369 2 -5.0157622111241425e-03 7.0788569836626563e+00 5.7461437076010258e+00 1.3303235856224571e+01 0 0 0
7662 2 5.0437354948706494e-03 1.2522284483905338e+01 8.7523941342797729e-01 9.7952215006611798e+00 0 0 0
6183 2 -4.1539456946466380e-03 1.2272696665093994e+01 7.9970885946607035e+00 1.3120737087459334e+01 0 0 0
6380 2 -5.5684129248739249e-03 1.1276054816514320e+01 5.4865980891711930e-01 1.3882641165255475e+01 0 0 0
7612 2 2.3969539515042463e-03 1.4737198319277580e+01 4.0239382641056753e+00 7.1767181833016549e+00 0 0 0
7634 2 5.5789543653162830e-03 1.8871586196134675e+01 8.5116463113090235e-01 1.0310237117433692e+01 0 0 0
7766 2 -3.0443143684181391e-03 1.8910358516894171e+01 1.2024388995240474e+00 1.4025261555370513e+01 0 0 0
7744 2 4.0016783500531122e-03 1.8476895505767249e+01 3.3877915085804506e+00 1.1399508132109775e+01 0 0 0
7431 2 3.3506927895048878e-03 1.2899518366065367e+01 6.6902100599646026e+00 8.3972677369224975e+00 0 0 0
7674 2 5.5430404230866707e-03 1.7916866323174773e+01 5.7717938638237625e+00 1.0082430037196353e+01 0 0 0
6298 2 5.0098242243247892e-03 1.3148967679999343e+01 3.9531801238923605e+00 9.9999497556925032e+00 0 0 0
7484 2 3.3124725235481041e-03 1.4883302602096602e+01 1.5280603181956682e+00 8.1923769376261983e+00 0 0 0
6309 2 -4.8743166598128980e-03 1.2594700553331263e+01 4.5728077841121673e+00 1.3136615316239151e+01 0 0 0
6031 2 8.2929977866053528e-04 1.3597318783963098e+01 2.0964662093069717e+00 1.2191405137462850e+01 0 0 0
6044 2 6.2564113488852886e-03 1.6006511738650225e+01 1.0882549407560640e+00 1.0759230988254306e+01 0 0 0
6227 2 -5.3708011946836673e-03 1.6198311640918320e+01 2.6054447129145442e+00 1.3154329272575882e+01 0 0 0
6305 2 5.1125381679117269e-03 1.4009788397459518e+01 6.3298682126145973e+00 1.1366516688130686e+01 0 0 0
7511 2 2.7805113175947528e-03 1.6217637458143543e+01 6.6166176483278738e+00 8.0684744732632971e+00 0 0 0
7563 2 3.0457415634313296e-03 1.7387098754127859e+01 3.0384069369261426e+00 8.4054043261408200e+00 0 0 0
7571 2 -2.1160082596881442e-03 1.7127246213094480e+01 5.5187818841712986e+00 1.2639307528760026e+01 0 0 0
7595 2 5.7899271309985959e-03 1.5918821029596453e+01 3.9786696411697062e+00 1.0518868928416591e+01 0 0 0
6180 2 -4.1604856118489597e-03 1.4813879045092408e+01 6.7944535398688473e+00 1.4007186249547914e+01 0 0 0
7432 2 4.4323189787953982e-03 -2.0008574130199480e-01 8.5316309047621814e+00 9.5429933568300971e+00 1 0 0
6434 2 -3.4402076693941675e-03 2.3651041636608343e+00 8.6663919176250186e+00 1.3360896603519436e+01 0 0 0
6206 2 -4.1066287176144975e-03 5.2565875226028957e+00 1.0058652848551612e+01 1.4076921666978528e+01 0 0 0
7676 2 4.5981331265448101e-03 2.5707821932584465e+00 1.5870662412670134e+01 9.4305871583329708e+00 0 0 0
6957 2 -4.1032438121677900e-03 -3.3244495883126340e-01 1.6064118801315175e+01 1.3108618099185055e+01 0 0 0
6989 2 2.2561967595419808e-03 1.1392172142079202e-01 1.1229212385288378e+01 7.9709370666931347e+00 0 0 0
8235 2 2.5717447706609018e-03 8.0039703723028643e-01 1.3836805342582897e+01 8.2456413534909796e+00 0 0 0
6314 2 2.3931628622780718e-03 2.3993843174248122e+00 8.1550034972106360e+00 7.5118340160106047e+00 0 0 0
6390 2 3.3544027364440683e-03 2.5779426575908850e+00 1.0761668053254034e+01 8.8965232305089383e+00 0 0 0
6422 2 4.7433604543997343e-03 3.0655404745465011e+00 8.2362783188537456e+00 1.0783813830384215e+01 0 0 0
6201 2 -1.8741007717501662e-03 4.8013008633909546e+00 1.3036901008560335e+01 1.2785707438587657e+01 0 0 0
6248 2 5.7695198191529710e-03 -3.6750123278658825e-01 1.5802824960058883e+01 1.0026782196433055e+01 0 0 0
6249 2 6.8860506499390248e-03 7.2813786945785153e-01 1.2927998904301619e+01 1.0961510488940309e+01 0 0 0
6427 2 5.0617840640151098e-03 4.2388286066411434e+00 1.0616702937160815e+01 1.1270870194381617e+01 0 0 0
6921 2 4.9798342294009859e-03 1.2825192223794850e+00 1.0146121434225934e+01 1.1086324592976895e+01 0 0 0
7593 2 -4.8370769780106499e-03 -3.6015570301835698e-01 1.2938853595579285e+01 1.3617961765200141e+01 1 0 0
6948 2 6.3024055680159776e-03 3.9202309389635204e+00 1.3660394019467121e+01 1.0049360085184992e+01 0 0 0
8318 2 -4.3289358344544230e-03 2.6171493492834510e+00 1.4829380282454984e+01 1.3031407993800151e+01 0 0 0
8456 2 -2.6476055510392038e-03 2.3859773069165255e+00 1.1840286043968762e+01 1.2927951880153969e+01 0 0 0
6230 2 3.2533304511196256e-03 4.9859530000022430e+00 9.3344910879324328e+00 8.7760419899906132e+00 0 0 0
6237 2 5.5924236185123915e-03 5.9625637680344568e+00 1.1893506030498376e+01 9.7686410685397966e+00 0 0 0
6895 2 3.2767339730191553e-03 5.3099654707436166e+00 1.5761745034437562e+01 8.6949342767876026e+00 0 0 0
6224 2 3.1001354431868739e-03 7.9669511789951502e+00 1.1532619621284516e+01 7.7042664659927649e+00 0 0 0
7002 2 1.4695793586395106e-03 1.2386830006751106e+01 1.5094460995285880e+01 1.1865701877615338e+01 0 0 0
7102 2 5.9151944749945909e-03 6.8289762936619978e+00 1.4198428455563537e+01 1.1185466099796654e+01 0 0 0
7001 2 4.4317464727250261e-03 1.1165896862752474e+01 1.5528893908503246e+01 9.1950646474369648e+00 0 0 0
6057 2 3.7651760793315598e-03 1.0801669956897465e+01 1.0677480994780344e+01 8.4308306806586621e+00 0 0 0
6175 2 3.9760672870214212e-03 8.4291612586122664e+00 9.1845035940241875e+00 8.8131538334275152e+00 0 0 0
6445 2 -4.3587741535780879e-03 7.3040699004499121e+00 1.1629962788694710e+01 1.3119510643505988e+01 0 0 0
6087 2 6.7212336862761748e-03 1.0423137562060731e+01 8.5859394293044478e+00 1.0591792148918143e+01 0 0 0
6091 2 5.4714042568157909e-03 7.1477102991188444e+00 9.7018327593919089e+00 1.1163815983908012e+01 0 0 0
6205 2 3.0701497072923123e-03 7.6856607261439400e+00 1.4335956071723484e+01 8.4665546326411842e+00 0 0 0
6220 2 6.1648521618248350e-03 9.6507383239745739e+00 1.3119845989922847e+01 9.5929773142394037e+00 0 0 0
6294 2 -5.4918453882671549e-03 1.0151709810715182e+01 1.0196644367469657e+01 1.3047097689691386e+01 0 0 0
6410 2 2.1728377533953148e-04 1.0188073636778606e+01 1.2867387276249451e+01 1.2367607784994965e+01 0 0 0
7025 2 3.2868851697216792e-03 9.0370262644680786e+00 1.5828571882704361e+01 1.1711259404983593e+01 0 0 0
6405 2 -3.4363829005179276e-03 1.2321779306309889e+01 1.2112259417510373e+01 1.3799736135539044e+01 0 0 0
7083 2 -5.8137527754435567e-03 7.9017152861624984e+00 1.4237124912978718e+01 1.3915368461108494e+01 0 0 0
7709 2 -6.8913234435838628e-04 1.8133473981969939e+01 1.3192194203209519e+01 1.4071041475520847e+01 0 0 0
7455 2 2.7094275719637875e-03 1.8794581292242082e+01 8.3819781748924083e+00 7.8476215678784511e+00 0 0 0
6336 2 5.8911660422551297e-03 1.2714937368612379e+01 1.0528642742350065e+01 1.1305368591773970e+01 0 0 0
6291 2 2.9274256925606460e-03 1.4995546061347591e+01 1.4904187476139823e+01 1.1495953311582165e+01 0 0 0
6966 2 3.6068085930558353e-03 1.3656659575318265e+01 1.5517416505881652e+01 9.1165580168824203e+00 0 0 0
6391 2 -5.7678072989291937e-04 1.5318670903093510e+01 1.3737946561994713e+01 1.4137147856865273e+01 0 0 0
6935 2 4.8145791827768451e-03 1.7843649621704408e+01 9.8210105336839302e+00 1.0702349468685380e+01 0 0 0
7682 2 2.1386695904413843e-03 1.8415239168074113e+01 1.3384271406894914e+01 7.1450020253229134e+00 0 0 0
6389 2 -5.6197206497156267e-03 1.7302734867245618e+01 8.3552311334828246e+00 1.3414039187281089e+01 0 0 0
6197 2 5.7001842682044080e-03 1.6029694326868956e+01 8.0786973814481602e+00 1.0346786738006253e+01 0 0 0
6199 2 3.6927269043330875e-03 1.3536061175949738e+01 9.3471758440055623e+00 8.7602788880042741e+00 0 0 0
7506 2 4.5487826695544816e-03 1.8677614579674856e+01 1.4850983531009161e+01 9.4761217797567276e+00 0 0 0
6170 2 3.6294178884631210e-03 1.8602117374264395e+01 1.1643014812937951e+01 9.0226555009413509e+00 0 0 0
6061 2 3.1702512303445913e-03 1.7054045927585726e+01 1.2515940045007346e+01 1.1352855781639184e+01 0 0 0
6347 2 -6.7454677112255431e-04 1.7243215196459577e+01 1.5644642136803753e+01 1.2439143922172152e+01 0 0 0
6218 2 3.6792073920801178e-03 1.5903053451487718e+01 1.3618171675952008e+01 9.2480968510150898e+00 0 0 0
6233 2 -2.5790821544263744e-03 1.4984122580157148e+01 9.6260266579959417e+00 1.3014125819905438e+01 0 0 0
6058 2 2.2380353092396081e-03 1.6398589443587074e+01 1.0338028004003435e+01 7.7770695212210113e+00 0 0 0
6231 2 2.2718045395550539e-03 1.3720272423751643e+01 1.1600408466360410e+01 7.1509493291397197e+00 0 0 0
7476 2 5.4510756158489999e-03 1.3182474415673646e+01 1.2818515847807904e+01 9.9082229894008815e+00 0 0 0
6954 2 4.9041912918291299e-03 1.5399332106593436e+01 1.0809745887499774e+01 1.0226698107668833e+01 0 0 0
6232 2 1.8121649435445527e-02 4.9691604766912132e+00 4.4514255687475091e+00 1.7233504530263250e+01 0 0 0
6317 2 1.1864483420501679e-02 3.8243034968328873e+00 2.4339072096632481e+00 1.5661160284159973e+01 0 0 0
5893 2 1.8013056319199704e-02 3.2659461256600695e+00 7.3458025059900098e+00 1.5578412505566158e+01 0 0 0
6407 2 -8.6459812850667866e-02 4.1554211164666652e+00 3.3887347119500566e+00 2.0826994398938524e+01 0 0 0
6438 2 1.3720119980661329e-02 5.9633741358748029e+00 1.8021138150942186e+00 1.7570915940371858e+01 0 0 0
6446 2 7.4713220206835051e-03 3.3426479795134521e+00 1.8533110995639510e+00 1.8096236339297516e+01 0 0 0
6500 2 -5.8582597684897639e-02 3.7983962950946144e+00 5.3938759318720397e-01 2.0761066190054056e+01 0 0 0
7152 2 5.8617514433025421e-04 2.9551640019175753e+00 6.4650451492221777e+00 1.8258544437305254e+01 0 0 0
7784 2 2.2011449113737806e-02 6.5710263486627729e-01 6.5895466585158111e+00 1.6766062352486731e+01 0 0 0
8464 2 1.8461571476091634e-02 2.2322855039037286e+00 4.3718563340270400e+00 1.6841015355004487e+01 0 0 0
5773 2 -3.3331537738839997e-02 2.8150499826421110e-01 6.5062124248862911e+00 1.9270251342685388e+01 0 0 0
7073 2 1.7298191466612444e-02 1.7687236393524997e+00 -2.8773014127115609e-01 1.6328582167470731e+01 0 0 0
6331 2 1.1574349784628969e-02 5.2628511421289170e+00 -3.8364224827314296e-02 1.5513407389393601e+01 0 0 0
6321 2 -9.8361829772193946e-02 3.0018775810886464e+00 5.9323417507502354e+00 2.1015247390645975e+01 0 0 0
6357 2 5.0958624112668852e-04 4.5048741596454320e+00 4.9798611247058302e+00 1.4588658743599529e+01 0 0 0
8461 2 2.1553904523093487e-02 -1.7561513878584182e-02 2.1620663335805022e+00 1.7141808281097305e+01 0 0 0
7755 2 -5.6309119360461811e-02 7.1055182624296920e-01 1.6950248928853706e+00 2.0070505032702204e+01 1 0 0
5781 2 1.4626571882928728e-02 5.9966528252192717e+00 7.8525429122638037e+00 1.5621302051777645e+01 0 0 0
5827 2 -6.8921953682021059e-02 5.3221564032459154e+00 5.9032414129636308e+00 2.0171834130929277e+01 0 0 0
7678 2 -3.0949616137280725e-03 1.7467040850852311e+00 5.2013080903568083e+00 1.4270197246477510e+01 0 0 0
6356 2 -7.9110266290979336e-02 8.8601113731745986e+00 2.4839296973681280e+00 2.0376810066462387e+01 0 0 0
6382 2 -7.4638368160000634e-02 9.2223951084766966e+00 5.8300876064150193e+00 2.0176271117668726e+01 0 0 0
6395 2 1.4945466695193737e-02 9.3014995240447966e+00 2.0612090262605336e+00 1.7638538436548448e+01 0 0 0
6415 2 -4.7520805880586742e-02 6.2353140606972319e+00 1.0302894666045288e+00 2.0393544927982020e+01 0 0 0
6418 2 -1.7411236635873285e-02 1.2259705486449969e+01 2.5412354509530908e+00 1.8859057954945332e+01 0 0 0
6425 2 1.6317664097983083e-02 1.0726528871860454e+01 3.5870212991906931e+00 1.5759841418860672e+01 0 0 0
6428 2 -1.0045793073940483e-02 7.1690022852003654e+00 4.1613861010212272e+00 1.9063604045758577e+01 0 0 0
6581 2 1.9392621511706037e-02 8.3655049078301733e+00 5.3907044372189121e+00 1.6017981575527159e+01 0 0 0
6933 2 2.0208070464154210e-02 1.1922130710126535e+01 6.7841257690504686e-01 1.6742134199817578e+01 0 0 0
5844 2 1.0376245921418097e-02 6.7455505321419498e+00 6.8608131198746225e+00 1.7907348832341746e+01 0 0 0
7048 2 9.1780746697502445e-03 6.5303396357411101e+00 3.3357948758407479e+00 1.5133400151028530e+01 0 0 0
5851 2 -7.8073104185137729e-02 1.0989662633337995e+01 7.7603438684587509e+00 2.1195773607451660e+01 0 0 0
6396 2 9.7232824851068104e-03 1.0282426914936821e+01 5.7838713457954283e+00 1.7869883803970144e+01 0 0 0
6278 2 1.3656299486821637e-02 1.0408242624407917e+01 7.4734583456275026e+00 1.5370738072087581e+01 0 0 0
6307 2 9.2655489629297344e-03 8.1109959125494147e+00 4.9961280528367868e-01 1.5326029255328438e+01 0 0 0
7560 2 -9.5191116261309876e-03 1.2405697560621494e+01 7.8838411058072948e+00 1.8755259016094119e+01 0 0 0
6579 2 -6.0702158033183906e-02 1.0864566155420302e+01 1.7609917235983885e-01 2.0643726936988475e+01 0 1 0
6374 2 1.6923232368733124e-02 1.2647228566577105e+01 5.3537205739995049e+00 1.5888030167634943e+01 0 0 0
5808 2 7.1228619326205809e-03 1.7479243187284688e+01 3.9692635366467308e+00 1.8105721017701217e+01 0 0 0
6240 2 7.0804318439337821e-03 1.8009410989766369e+01 3.7203262350340740e+00 1.5099751522678305e+01 0 0 0
6276 2 1.3317668714287594e-02 1.4558485318801274e+01 3.0535334738075637e+00 1.7784592114332700e+01 0 0 0
6326 2 2.1092659460978349e-02 1.6753761366036084e+01 1.7505956030782925e+00 1.6596136724819225e+01 0 0 0
6349 2 -4.5108617186349335e-02 1.6214556998730920e+01 5.7539902048245626e+00 1.9985237170509041e+01 0 0 0
6411 2 -6.7012388700644812e-02 1.2960816852685575e+01 5.2878209137858168e+00 2.0118869676132210e+01 0 0 0
6449 2 7.4967882967241321e-03 1.5004442658871072e+01 4.1141539335462660e+00 1.5122590550547024e+01 0 0 0
7646 2 1.2329916557776472e-02 1.7180358375106874e+01 6.2409069657001819e+00 1.5667110115104197e+01 0 0 0
7692 2 1.8634626050322671e-02 1.5004586990861615e+01 6.2515314675298557e+00 1.7516311654599189e+01 0 0 0
8419 2 -3.7275953265953454e-02 1.6196568897101109e+01 8.6870663771873657e-01 1.9743180951112020e+01 0 0 0
6376 2 9.4289824061004578e-03 1.7845253317480445e+01 7.2668457482528241e+00 1.8315095839982348e+01 0 0 0
6273 2 5.3435325222114449e-03 1.2929161603239070e+01 2.3252938033769666e+00 1.4837399622761865e+01 0 0 0
6956 2 1.2905008193488304e-02 1.4764116839244039e+01 3.4828114692404366e-01 1.7412236759106296e+01 0 0 0
5791 2 -8.9047038874620385e-02 1.4351650600938447e+01 2.3721438437574922e+00 2.0852621474519125e+01 0 0 0
6288 2 2.0518041390465039e-03 1.5116078286920697e+01 6.4278455721626337e-01 1.4531710618735600e+01 0 0 0
6436 2 -2.9625778261985113e-02 1.2832394464371909e+01 -2.4600325006767390e-01 1.9238817764990159e+01 0 1 0
5856 2 -3.5661393767716480e-02 1.8819668562270110e+01 2.7944483944249660e-01 1.9361335403251445e+01 0 1 0
7683 2 -5.7624123250409033e-02 1.7035124992002007e+01 2.9221657386750084e+00 2.0942075567491351e+01 0 0 0
6375 2 -8.3214918216427847e-02 1.7718056932947171e+01 7.7717259879732712e+00 2.1051055579978829e+01 0 0 0
5874 2 -2.8118067381033507e-02 4.3711846530143745e+00 8.5691855836345514e+00 1.9301504943425584e+01 0 0 0
6192 2 1.4590978051665407e-02 2.3164793919180093e+00 1.5825995762692564e+01 1.5685755100739156e+01 0 0 0
7204 2 -4.1118566835821414e-02 6.6026557334864872e-02 1.3672143420898250e+01 2.0081592952912413e+01 0 0 0
6371 2 7.6986131539701829e-03 -2.1639847055105579e-01 1.1874841097056766e+01 1.8243529636498700e+01 1 0 0
5846 2 -2.9872448843889579e-02 1.8222291779959217e+00 8.8566368609884663e+00 1.9193680627247122e+01 0 0 0
5777 2 1.9856497534675287e-02 4.3238347027883206e+00 1.0001145538046782e+01 1.6671127940322290e+01 0 0 0
5799 2 -8.2112617290731785e-02 4.8714008529820170e+00 1.6138269025781714e+01 2.0422123216637861e+01 0 0 0